                              Psi4 1.0rc47 Driver

  ==> Input File <==

--------------------------------------------------------------------------
#Testing the OOP code
from Epack import Epack #imports a classobj from a module

molecule mol {
    O
    H 1 1.1
    H 1 1.1 2 104

    #C    1.39410    0.00000   0.00000
    #C    0.69705   -1.20732   0.00000
    #C   -0.69705   -1.20732   0.00000
    #C   -1.39410    0.00000   0.00000
    #C   -0.69705    1.20732   0.00000
    #C    0.69705    1.20732   0.00000
    #H    2.47618    0.00000   0.00000
    #H    1.23809   -2.14444   0.00000
    #H   -1.23809   -2.14444   0.00000
    #H   -2.47618    0.00000   0.00000
    #H   -1.23809    2.14444   0.00000
    #H    1.23809    2.14444   0.00000

    symmetry c1
}

set {
    scf_type df
    basis cc-PVDZ
    mp2_type df
}
#Edit molecule and set basis in input.dat, create wavefunction and pass it
# to Epack (classobj) to create instance.  Let the Epack instance do the rest
wfn = psi4.new_wavefunction(mol, psi4.get_global_option('BASIS'))

# Epack(wfn, SCF_dE_tol, SCF_dRMS_tol, iter_tol, SOSCF_dRMS_tol, SOSCF_iter_tol)
Hopefully = Epack(wfn, 1e-11, 1e-10, 100, 8, 5e-3, 25)
Hopefully.energy('MP2')

import time
start = time.time()
print("Psi4 energy: %12.10f" % energy('MP2'))
print("Psi4 runtime: %6.6f" % (time.time() - start))
--------------------------------------------------------------------------

  Basis Set: CC-PVDZ
  Basis Set:
    Molecular point group: c1

    Geometry (in Angstrom), charge = 0, multiplicity = 1:

       Center              X                  Y                   Z               Mass
    ------------   -----------------  -----------------  -----------------  -----------------
           O          0.000000000000     0.000000000000    -0.075791843589    15.994914619560
           H          0.000000000000    -0.866811828967     0.601435779270     1.007825032070
           H          0.000000000000     0.866811828967     0.601435779270     1.007825032070

  Charge       = 0
  Multiplicity = 1
  Basis Set: CC-PVDZ
  Basis Set:

    Orbital Energies (a.u.)
    -----------------------

    Doubly Occupied:

       1A    -20.574753     2A     -1.277569     3A     -0.629914
       4A     -0.541682     5A     -0.486535

  @DF-RHF Final Energy:   -75.98977754538741

   => Energetics <=

    Nuclear Repulsion Energy =              8.0023664507190819
    One-Electron Energy =                -120.9633819627851494
    Two-Electron Energy =                  36.9712379666786433
    DFT Exchange-Correlation Energy =       0.0000000000000000
    Empirical Dispersion Energy =           0.0000000000000000
    PCM Polarization Energy =               0.0000000000000000
    EFP Energy =                            0.0000000000000000
    Total Energy =                        -75.9897775453874260
  Basis Set:
	 Reference Energy          =     -75.9897775453874118 [Eh]
	 Singles Energy            =      -0.0000000000000001 [Eh]
	 Same-Spin Energy          =      -0.0531094582360592 [Eh]
	 Opposite-Spin Energy      =      -0.1612006835071581 [Eh]
	 Correlation Energy        =      -0.2143101417432174 [Eh]
	 Total Energy              =     -76.2040876871306239 [Eh]

	 ================> DF-SCS-MP2 Energies <==================
	-----------------------------------------------------------
	 SCS Same-Spin Scale       =       0.3333333333333333 [-]
	 SCS Opposite-Spin Scale   =       1.2000000000000000 [-]
	 SCS Same-Spin Energy      =      -0.0177031527453531 [Eh]
	 SCS Opposite-Spin Energy  =      -0.1934408202085897 [Eh]
	 SCS Correlation Energy    =      -0.2111439729539429 [Eh]
	 SCS Total Energy          =     -76.2009215183413602 [Eh]
	-----------------------------------------------------------

*** Psi4 exiting successfully. Buy a developer a beer!
